<?xml version="1.0"?>
<VTKFile type="UnstructuredGrid" version="0.1" byte_order="LittleEndian">
<UnstructuredGrid>
<Piece NumberOfPoints="154" NumberOfCells="76">
<PointData>
</PointData>
<CellData>
<DataArray type="Float32" NumberOfComponents="3" Name="Velocity">
  0.000000E+00   2.770171E+01   0.000000E+00 
  0.000000E+00   2.946306E+01   0.000000E+00 
  0.000000E+00   3.122441E+01   0.000000E+00 
  0.000000E+00   3.298576E+01   0.000000E+00 
  0.000000E+00   3.474711E+01   0.000000E+00 
  0.000000E+00   3.650846E+01   0.000000E+00 
  0.000000E+00   3.826981E+01   0.000000E+00 
  0.000000E+00   4.003116E+01   0.000000E+00 
  0.000000E+00   4.179251E+01   0.000000E+00 
  0.000000E+00   4.355386E+01   0.000000E+00 
  0.000000E+00   4.531521E+01   0.000000E+00 
  0.000000E+00   4.707656E+01   0.000000E+00 
  0.000000E+00   4.883792E+01   0.000000E+00 
  0.000000E+00   5.059927E+01   0.000000E+00 
  0.000000E+00   5.236062E+01   0.000000E+00 
  0.000000E+00   5.412197E+01   0.000000E+00 
  0.000000E+00   5.588332E+01   0.000000E+00 
  0.000000E+00   5.764467E+01   0.000000E+00 
  0.000000E+00   5.940602E+01   0.000000E+00 
  0.000000E+00   6.116737E+01   0.000000E+00 
  0.000000E+00   6.292872E+01   0.000000E+00 
  0.000000E+00   6.469007E+01   0.000000E+00 
  0.000000E+00   6.645142E+01   0.000000E+00 
  0.000000E+00   6.821277E+01   0.000000E+00 
  0.000000E+00   6.997412E+01   0.000000E+00 
  0.000000E+00   7.173547E+01   0.000000E+00 
  0.000000E+00   7.349682E+01   0.000000E+00 
  0.000000E+00   7.525817E+01   0.000000E+00 
  0.000000E+00   7.701952E+01   0.000000E+00 
  0.000000E+00   7.878087E+01   0.000000E+00 
  0.000000E+00   8.054222E+01   0.000000E+00 
  0.000000E+00   8.230357E+01   0.000000E+00 
  0.000000E+00   8.406492E+01   0.000000E+00 
  0.000000E+00   8.582627E+01   0.000000E+00 
  0.000000E+00   8.758762E+01   0.000000E+00 
  0.000000E+00   8.934897E+01   0.000000E+00 
  0.000000E+00   9.111032E+01   0.000000E+00 
  0.000000E+00   9.287167E+01   0.000000E+00 
  0.000000E+00   9.463302E+01   0.000000E+00 
  0.000000E+00   9.639437E+01   0.000000E+00 
  0.000000E+00   9.815572E+01   0.000000E+00 
  0.000000E+00   9.991708E+01   0.000000E+00 
  0.000000E+00   1.016784E+02   0.000000E+00 
  0.000000E+00   1.034398E+02   0.000000E+00 
  0.000000E+00   1.052011E+02   0.000000E+00 
  0.000000E+00   1.069625E+02   0.000000E+00 
  0.000000E+00   1.087238E+02   0.000000E+00 
  0.000000E+00   1.104852E+02   0.000000E+00 
  0.000000E+00   1.122465E+02   0.000000E+00 
  0.000000E+00   1.140079E+02   0.000000E+00 
  0.000000E+00   1.157692E+02   0.000000E+00 
  0.000000E+00   1.175306E+02   0.000000E+00 
  0.000000E+00   1.192919E+02   0.000000E+00 
  0.000000E+00   1.210533E+02   0.000000E+00 
  0.000000E+00   1.228146E+02   0.000000E+00 
  0.000000E+00   1.245760E+02   0.000000E+00 
  0.000000E+00   1.263373E+02   0.000000E+00 
  0.000000E+00   1.280987E+02   0.000000E+00 
  0.000000E+00   1.298600E+02   0.000000E+00 
  0.000000E+00   1.316214E+02   0.000000E+00 
  0.000000E+00   1.333827E+02   0.000000E+00 
  0.000000E+00   1.351441E+02   0.000000E+00 
  0.000000E+00   1.369054E+02   0.000000E+00 
  0.000000E+00   1.386668E+02   0.000000E+00 
  0.000000E+00   1.404281E+02   0.000000E+00 
  0.000000E+00   1.421895E+02   0.000000E+00 
  0.000000E+00   1.439508E+02   0.000000E+00 
  0.000000E+00   1.457122E+02   0.000000E+00 
  0.000000E+00   1.474735E+02   0.000000E+00 
  0.000000E+00   1.492349E+02   0.000000E+00 
  0.000000E+00   1.509962E+02   0.000000E+00 
  0.000000E+00   1.527576E+02   0.000000E+00 
  0.000000E+00   1.545189E+02   0.000000E+00 
  0.000000E+00   1.562803E+02   0.000000E+00 
  0.000000E+00   1.580416E+02   0.000000E+00 
  0.000000E+00   1.598030E+02   0.000000E+00 
</DataArray>
</CellData>
<Points>
<DataArray type="Float32" NumberOfComponents="3" Name="Coordinates">
 -2.023364E-02   3.427506E-03   3.646003E-03 
 -2.023364E-02  -3.427506E-03  -3.646003E-03 
 -2.156239E-02   3.500557E-03   3.633504E-03 
 -2.156239E-02  -3.500557E-03  -3.633504E-03 
 -2.289115E-02   3.573813E-03   3.619758E-03 
 -2.289115E-02  -3.573813E-03  -3.619758E-03 
 -2.421990E-02   3.647252E-03   3.604758E-03 
 -2.421990E-02  -3.647252E-03  -3.604758E-03 
 -2.554865E-02   3.720856E-03   3.588499E-03 
 -2.554865E-02  -3.720856E-03  -3.588499E-03 
 -2.687740E-02   3.850949E-03   3.631094E-03 
 -2.687740E-02  -3.850949E-03  -3.631094E-03 
 -2.820616E-02   3.982463E-03   3.671203E-03 
 -2.820616E-02  -3.982463E-03  -3.671203E-03 
 -2.953491E-02   4.115358E-03   3.708798E-03 
 -2.953491E-02  -4.115358E-03  -3.708798E-03 
 -3.086366E-02   4.249596E-03   3.743853E-03 
 -3.086366E-02  -4.249596E-03  -3.743853E-03 
 -3.219242E-02   4.406788E-03   3.802084E-03 
 -3.219242E-02  -4.406788E-03  -3.802084E-03 
 -3.352117E-02   4.565628E-03   3.857451E-03 
 -3.352117E-02  -4.565628E-03  -3.857451E-03 
 -3.484992E-02   4.726072E-03   3.909928E-03 
 -3.484992E-02  -4.726072E-03  -3.909928E-03 
 -3.617867E-02   4.888078E-03   3.959488E-03 
 -3.617867E-02  -4.888078E-03  -3.959488E-03 
 -3.750743E-02   5.053116E-03   4.014471E-03 
 -3.750743E-02  -5.053116E-03  -4.014471E-03 
 -3.883618E-02   5.219625E-03   4.066673E-03 
 -3.883618E-02  -5.219625E-03  -4.066673E-03 
 -4.016493E-02   5.387565E-03   4.116070E-03 
 -4.016493E-02  -5.387565E-03  -4.116070E-03 
 -4.149369E-02   5.556898E-03   4.162641E-03 
 -4.149369E-02  -5.556898E-03  -4.162641E-03 
 -4.282244E-02   5.718690E-03   4.207027E-03 
 -4.282244E-02  -5.718690E-03  -4.207027E-03 
 -4.415119E-02   5.881659E-03   4.248916E-03 
 -4.415119E-02  -5.881659E-03  -4.248916E-03 
 -4.547994E-02   6.045772E-03   4.288291E-03 
 -4.547994E-02  -6.045772E-03  -4.288291E-03 
 -4.680870E-02   6.210998E-03   4.325136E-03 
 -4.680870E-02  -6.210998E-03  -4.325136E-03 
 -4.813745E-02   6.379233E-03   4.367904E-03 
 -4.813745E-02  -6.379233E-03  -4.367904E-03 
 -4.946620E-02   6.548521E-03   4.408279E-03 
 -4.946620E-02  -6.548521E-03  -4.408279E-03 
 -5.079496E-02   6.718837E-03   4.446247E-03 
 -5.079496E-02  -6.718837E-03  -4.446247E-03 
 -5.212371E-02   6.890152E-03   4.481795E-03 
 -5.212371E-02  -6.890152E-03  -4.481795E-03 
 -5.345246E-02   7.052083E-03   4.515352E-03 
 -5.345246E-02  -7.052083E-03  -4.515352E-03 
 -5.478122E-02   7.214845E-03   4.546809E-03 
 -5.478122E-02  -7.214845E-03  -4.546809E-03 
 -5.610997E-02   7.378416E-03   4.576155E-03 
 -5.610997E-02  -7.378416E-03  -4.576155E-03 
 -5.743872E-02   7.542775E-03   4.603382E-03 
 -5.743872E-02  -7.542775E-03  -4.603382E-03 
 -5.876747E-02   7.675162E-03   4.615688E-03 
 -5.876747E-02  -7.675162E-03  -4.615688E-03 
 -6.009623E-02   7.808026E-03   4.626459E-03 
 -6.009623E-02  -7.808026E-03  -4.626459E-03 
 -6.142498E-02   7.941353E-03   4.635690E-03 
 -6.142498E-02  -7.941353E-03  -4.635690E-03 
 -6.275373E-02   8.075129E-03   4.643374E-03 
 -6.275373E-02  -8.075129E-03  -4.643374E-03 
 -6.408249E-02   8.165371E-03   4.631124E-03 
 -6.408249E-02  -8.165371E-03  -4.631124E-03 
 -6.541124E-02   8.255749E-03   4.617965E-03 
 -6.541124E-02  -8.255749E-03  -4.617965E-03 
 -6.673999E-02   8.346256E-03   4.603898E-03 
 -6.673999E-02  -8.346256E-03  -4.603898E-03 
 -6.806874E-02   8.436883E-03   4.588919E-03 
 -6.806874E-02  -8.436883E-03  -4.588919E-03 
 -6.939750E-02   8.487233E-03   4.557389E-03 
 -6.939750E-02  -8.487233E-03  -4.557389E-03 
 -7.072625E-02   8.537486E-03   4.525451E-03 
 -7.072625E-02  -8.537486E-03  -4.525451E-03 
 -7.205500E-02   8.587641E-03   4.493103E-03 
 -7.205500E-02  -8.587641E-03  -4.493103E-03 
 -7.338376E-02   8.637693E-03   4.460348E-03 
 -7.338376E-02  -8.637693E-03  -4.460348E-03 
 -7.471251E-02   8.652973E-03   4.414944E-03 
 -7.471251E-02  -8.652973E-03  -4.414944E-03 
 -7.604126E-02   8.668017E-03   4.369498E-03 
 -7.604126E-02  -8.668017E-03  -4.369498E-03 
 -7.737001E-02   8.682822E-03   4.324010E-03 
 -7.737001E-02  -8.682822E-03  -4.324010E-03 
 -7.869877E-02   8.697391E-03   4.278482E-03 
 -7.869877E-02  -8.697391E-03  -4.278482E-03 
 -8.002752E-02   8.686204E-03   4.225291E-03 
 -8.002752E-02  -8.686204E-03  -4.225291E-03 
 -8.135627E-02   8.674717E-03   4.172282E-03 
 -8.135627E-02  -8.674717E-03  -4.172282E-03 
 -8.268503E-02   8.662932E-03   4.119459E-03 
 -8.268503E-02  -8.662932E-03  -4.119459E-03 
 -8.401378E-02   8.650850E-03   4.066823E-03 
 -8.401378E-02  -8.650850E-03  -4.066823E-03 
 -8.534253E-02   8.619272E-03   4.009555E-03 
 -8.534253E-02  -8.619272E-03  -4.009555E-03 
 -8.667128E-02   8.587373E-03   3.952610E-03 
 -8.667128E-02  -8.587373E-03  -3.952610E-03 
 -8.800004E-02   8.555156E-03   3.895987E-03 
 -8.800004E-02  -8.555156E-03  -3.895987E-03 
 -8.932879E-02   8.522622E-03   3.839690E-03 
 -8.932879E-02  -8.522622E-03  -3.839690E-03 
 -9.065754E-02   8.470009E-03   3.778345E-03 
 -9.065754E-02  -8.470009E-03  -3.778345E-03 
 -9.198630E-02   8.417059E-03   3.717442E-03 
 -9.198630E-02  -8.417059E-03  -3.717442E-03 
 -9.331505E-02   8.363776E-03   3.656983E-03 
 -9.331505E-02  -8.363776E-03  -3.656983E-03 
 -9.464380E-02   8.310162E-03   3.596970E-03 
 -9.464380E-02  -8.310162E-03  -3.596970E-03 
 -9.597255E-02   8.238204E-03   3.532466E-03 
 -9.597255E-02  -8.238204E-03  -3.532466E-03 
 -9.730131E-02   8.165904E-03   3.468495E-03 
 -9.730131E-02  -8.165904E-03  -3.468495E-03 
 -9.863006E-02   8.093263E-03   3.405060E-03 
 -9.863006E-02  -8.093263E-03  -3.405060E-03 
 -9.995881E-02   8.020286E-03   3.342162E-03 
 -9.995881E-02  -8.020286E-03  -3.342162E-03 
 -1.012876E-01   7.923310E-03   3.272185E-03 
 -1.012876E-01  -7.923310E-03  -3.272185E-03 
 -1.026163E-01   7.825971E-03   3.202861E-03 
 -1.026163E-01  -7.825971E-03  -3.202861E-03 
 -1.039451E-01   7.728272E-03   3.134190E-03 
 -1.039451E-01  -7.728272E-03  -3.134190E-03 
 -1.052738E-01   7.630216E-03   3.066174E-03 
 -1.052738E-01  -7.630216E-03  -3.066174E-03 
 -1.066026E-01   7.507551E-03   2.990711E-03 
 -1.066026E-01  -7.507551E-03  -2.990711E-03 
 -1.079313E-01   7.384503E-03   2.916014E-03 
 -1.079313E-01  -7.384503E-03  -2.916014E-03 
 -1.092601E-01   7.261074E-03   2.842083E-03 
 -1.092601E-01  -7.261074E-03  -2.842083E-03 
 -1.105888E-01   7.137269E-03   2.768921E-03 
 -1.105888E-01  -7.137269E-03  -2.768921E-03 
 -1.119176E-01   6.958255E-03   2.676447E-03 
 -1.119176E-01  -6.958255E-03  -2.676447E-03 
 -1.132463E-01   6.778769E-03   2.585027E-03 
 -1.132463E-01  -6.778769E-03  -2.585027E-03 
 -1.145751E-01   6.598816E-03   2.494663E-03 
 -1.145751E-01  -6.598816E-03  -2.494663E-03 
 -1.159038E-01   6.418400E-03   2.405358E-03 
 -1.159038E-01  -6.418400E-03  -2.405358E-03 
 -1.172326E-01   5.100906E-03   1.895301E-03 
 -1.172326E-01  -5.100906E-03  -1.895301E-03 
 -1.185614E-01   3.780609E-03   1.392664E-03 
 -1.185614E-01  -3.780609E-03  -1.392664E-03 
 -1.198901E-01   2.457540E-03   8.974584E-04 
 -1.198901E-01  -2.457540E-03  -8.974584E-04 
 -1.212189E-01   1.131732E-03   4.096953E-04 
 -1.212189E-01  -1.131732E-03  -4.096953E-04 
</DataArray>
</Points>
<Cells>
<DataArray type="Int32" Name="connectivity">
0 1 3 2 2 3 5 4 4 5 7 6 6 7 9 8 8 9 11 10 10 11 13 12 12 13 15 14 14 15 17 16 16 17 19 18 18 19 21 20 20 21 23 22 22 23 25 24 24 25 27 26 26 27 29 28 28 29 31 30 30 31 33 32 32 33 35 34 34 35 37 36 36 37 39 38 38 39 41 40 40 41 43 42 42 43 45 44 44 45 47 46 46 47 49 48 48 49 51 50 50 51 53 52 52 53 55 54 54 55 57 56 56 57 59 58 58 59 61 60 60 61 63 62 62 63 65 64 64 65 67 66 66 67 69 68 68 69 71 70 70 71 73 72 72 73 75 74 74 75 77 76 76 77 79 78 78 79 81 80 80 81 83 82 82 83 85 84 84 85 87 86 86 87 89 88 88 89 91 90 90 91 93 92 92 93 95 94 94 95 97 96 96 97 99 98 98 99 101 100 100 101 103 102 102 103 105 104 104 105 107 106 106 107 109 108 108 109 111 110 110 111 113 112 112 113 115 114 114 115 117 116 116 117 119 118 118 119 121 120 120 121 123 122 122 123 125 124 124 125 127 126 126 127 129 128 128 129 131 130 130 131 133 132 132 133 135 134 134 135 137 136 136 137 139 138 138 139 141 140 140 141 143 142 142 143 145 144 144 145 147 146 146 147 149 148 148 149 151 150 150 151 153 152 
</DataArray>
<DataArray type="Int32" Name="offsets">
4 8 12 16 20 24 28 32 36 40 44 48 52 56 60 64 68 72 76 80 84 88 92 96 100 104 108 112 116 120 124 128 132 136 140 144 148 152 156 160 164 168 172 176 180 184 188 192 196 200 204 208 212 216 220 224 228 232 236 240 244 248 252 256 260 264 268 272 276 280 284 288 292 296 300 304 
</DataArray>
<DataArray type="UInt8" Name="types">
9 9 9 9 9 9 9 9 9 9 9 9 9 9 9 9 9 9 9 9 9 9 9 9 9 9 9 9 9 9 9 9 9 9 9 9 9 9 9 9 9 9 9 9 9 9 9 9 9 9 9 9 9 9 9 9 9 9 9 9 9 9 9 9 9 9 9 9 9 9 9 9 9 9 9 9 
</DataArray>
</Cells>
</Piece>
<Piece NumberOfPoints="154" NumberOfCells="76">
<PointData>
</PointData>
<CellData>
<DataArray type="Float32" NumberOfComponents="3" Name="Velocity">
 -2.770171E+01   3.075508E-15   0.000000E+00 
 -2.946306E+01   3.271057E-15   0.000000E+00 
 -3.122441E+01   3.466606E-15   0.000000E+00 
 -3.298576E+01   3.662155E-15   0.000000E+00 
 -3.474711E+01   3.857704E-15   0.000000E+00 
 -3.650846E+01   4.053254E-15   0.000000E+00 
 -3.826981E+01   4.248803E-15   0.000000E+00 
 -4.003116E+01   4.444352E-15   0.000000E+00 
 -4.179251E+01   4.639901E-15   0.000000E+00 
 -4.355386E+01   4.835450E-15   0.000000E+00 
 -4.531521E+01   5.030999E-15   0.000000E+00 
 -4.707656E+01   5.226549E-15   0.000000E+00 
 -4.883792E+01   5.422098E-15   0.000000E+00 
 -5.059927E+01   5.617647E-15   0.000000E+00 
 -5.236062E+01   5.813196E-15   0.000000E+00 
 -5.412197E+01   6.008745E-15   0.000000E+00 
 -5.588332E+01   6.204294E-15   0.000000E+00 
 -5.764467E+01   6.399844E-15   0.000000E+00 
 -5.940602E+01   6.595393E-15   0.000000E+00 
 -6.116737E+01   6.790942E-15   0.000000E+00 
 -6.292872E+01   6.986491E-15   0.000000E+00 
 -6.469007E+01   7.182040E-15   0.000000E+00 
 -6.645142E+01   7.377589E-15   0.000000E+00 
 -6.821277E+01   7.573139E-15   0.000000E+00 
 -6.997412E+01   7.768688E-15   0.000000E+00 
 -7.173547E+01   7.964237E-15   0.000000E+00 
 -7.349682E+01   8.159786E-15   0.000000E+00 
 -7.525817E+01   8.355335E-15   0.000000E+00 
 -7.701952E+01   8.550885E-15   0.000000E+00 
 -7.878087E+01   8.746434E-15   0.000000E+00 
 -8.054222E+01   8.941983E-15   0.000000E+00 
 -8.230357E+01   9.137532E-15   0.000000E+00 
 -8.406492E+01   9.333081E-15   0.000000E+00 
 -8.582627E+01   9.528630E-15   0.000000E+00 
 -8.758762E+01   9.724180E-15   0.000000E+00 
 -8.934897E+01   9.919729E-15   0.000000E+00 
 -9.111032E+01   1.011528E-14   0.000000E+00 
 -9.287167E+01   1.031083E-14   0.000000E+00 
 -9.463302E+01   1.050638E-14   0.000000E+00 
 -9.639437E+01   1.070193E-14   0.000000E+00 
 -9.815572E+01   1.089747E-14   0.000000E+00 
 -9.991708E+01   1.109302E-14   0.000000E+00 
 -1.016784E+02   1.128857E-14   0.000000E+00 
 -1.034398E+02   1.148412E-14   0.000000E+00 
 -1.052011E+02   1.167967E-14   0.000000E+00 
 -1.069625E+02   1.187522E-14   0.000000E+00 
 -1.087238E+02   1.207077E-14   0.000000E+00 
 -1.104852E+02   1.226632E-14   0.000000E+00 
 -1.122465E+02   1.246187E-14   0.000000E+00 
 -1.140079E+02   1.265742E-14   0.000000E+00 
 -1.157692E+02   1.285297E-14   0.000000E+00 
 -1.175306E+02   1.304852E-14   0.000000E+00 
 -1.192919E+02   1.324406E-14   0.000000E+00 
 -1.210533E+02   1.343961E-14   0.000000E+00 
 -1.228146E+02   1.363516E-14   0.000000E+00 
 -1.245760E+02   1.383071E-14   0.000000E+00 
 -1.263373E+02   1.402626E-14   0.000000E+00 
 -1.280987E+02   1.422181E-14   0.000000E+00 
 -1.298600E+02   1.441736E-14   0.000000E+00 
 -1.316214E+02   1.461291E-14   0.000000E+00 
 -1.333827E+02   1.480846E-14   0.000000E+00 
 -1.351441E+02   1.500401E-14   0.000000E+00 
 -1.369054E+02   1.519956E-14   0.000000E+00 
 -1.386668E+02   1.539511E-14   0.000000E+00 
 -1.404281E+02   1.559065E-14   0.000000E+00 
 -1.421895E+02   1.578620E-14   0.000000E+00 
 -1.439508E+02   1.598175E-14   0.000000E+00 
 -1.457122E+02   1.617730E-14   0.000000E+00 
 -1.474735E+02   1.637285E-14   0.000000E+00 
 -1.492349E+02   1.656840E-14   0.000000E+00 
 -1.509962E+02   1.676395E-14   0.000000E+00 
 -1.527576E+02   1.695950E-14   0.000000E+00 
 -1.545189E+02   1.715505E-14   0.000000E+00 
 -1.562803E+02   1.735060E-14   0.000000E+00 
 -1.580416E+02   1.754615E-14   0.000000E+00 
 -1.598030E+02   1.774170E-14   0.000000E+00 
</DataArray>
</CellData>
<Points>
<DataArray type="Float32" NumberOfComponents="3" Name="Coordinates">
 -3.427506E-03  -2.023364E-02   3.646003E-03 
  3.427506E-03  -2.023364E-02  -3.646003E-03 
 -3.500557E-03  -2.156239E-02   3.633504E-03 
  3.500557E-03  -2.156239E-02  -3.633504E-03 
 -3.573813E-03  -2.289115E-02   3.619758E-03 
  3.573813E-03  -2.289115E-02  -3.619758E-03 
 -3.647252E-03  -2.421990E-02   3.604758E-03 
  3.647252E-03  -2.421990E-02  -3.604758E-03 
 -3.720856E-03  -2.554865E-02   3.588499E-03 
  3.720856E-03  -2.554865E-02  -3.588499E-03 
 -3.850949E-03  -2.687740E-02   3.631094E-03 
  3.850949E-03  -2.687740E-02  -3.631094E-03 
 -3.982463E-03  -2.820616E-02   3.671203E-03 
  3.982463E-03  -2.820616E-02  -3.671203E-03 
 -4.115358E-03  -2.953491E-02   3.708798E-03 
  4.115358E-03  -2.953491E-02  -3.708798E-03 
 -4.249596E-03  -3.086366E-02   3.743853E-03 
  4.249596E-03  -3.086366E-02  -3.743853E-03 
 -4.406788E-03  -3.219242E-02   3.802084E-03 
  4.406788E-03  -3.219242E-02  -3.802084E-03 
 -4.565628E-03  -3.352117E-02   3.857451E-03 
  4.565628E-03  -3.352117E-02  -3.857451E-03 
 -4.726072E-03  -3.484992E-02   3.909928E-03 
  4.726072E-03  -3.484992E-02  -3.909928E-03 
 -4.888078E-03  -3.617867E-02   3.959488E-03 
  4.888078E-03  -3.617867E-02  -3.959488E-03 
 -5.053116E-03  -3.750743E-02   4.014471E-03 
  5.053116E-03  -3.750743E-02  -4.014471E-03 
 -5.219625E-03  -3.883618E-02   4.066673E-03 
  5.219625E-03  -3.883618E-02  -4.066673E-03 
 -5.387565E-03  -4.016493E-02   4.116070E-03 
  5.387565E-03  -4.016493E-02  -4.116070E-03 
 -5.556898E-03  -4.149369E-02   4.162641E-03 
  5.556898E-03  -4.149369E-02  -4.162641E-03 
 -5.718690E-03  -4.282244E-02   4.207027E-03 
  5.718690E-03  -4.282244E-02  -4.207027E-03 
 -5.881659E-03  -4.415119E-02   4.248916E-03 
  5.881659E-03  -4.415119E-02  -4.248916E-03 
 -6.045772E-03  -4.547994E-02   4.288291E-03 
  6.045772E-03  -4.547994E-02  -4.288291E-03 
 -6.210998E-03  -4.680870E-02   4.325136E-03 
  6.210998E-03  -4.680870E-02  -4.325136E-03 
 -6.379233E-03  -4.813745E-02   4.367904E-03 
  6.379233E-03  -4.813745E-02  -4.367904E-03 
 -6.548521E-03  -4.946620E-02   4.408279E-03 
  6.548521E-03  -4.946620E-02  -4.408279E-03 
 -6.718837E-03  -5.079496E-02   4.446247E-03 
  6.718837E-03  -5.079496E-02  -4.446247E-03 
 -6.890152E-03  -5.212371E-02   4.481795E-03 
  6.890152E-03  -5.212371E-02  -4.481795E-03 
 -7.052083E-03  -5.345246E-02   4.515352E-03 
  7.052083E-03  -5.345246E-02  -4.515352E-03 
 -7.214845E-03  -5.478122E-02   4.546809E-03 
  7.214845E-03  -5.478122E-02  -4.546809E-03 
 -7.378416E-03  -5.610997E-02   4.576155E-03 
  7.378416E-03  -5.610997E-02  -4.576155E-03 
 -7.542775E-03  -5.743872E-02   4.603382E-03 
  7.542775E-03  -5.743872E-02  -4.603382E-03 
 -7.675162E-03  -5.876747E-02   4.615688E-03 
  7.675162E-03  -5.876747E-02  -4.615688E-03 
 -7.808026E-03  -6.009623E-02   4.626459E-03 
  7.808026E-03  -6.009623E-02  -4.626459E-03 
 -7.941353E-03  -6.142498E-02   4.635690E-03 
  7.941353E-03  -6.142498E-02  -4.635690E-03 
 -8.075129E-03  -6.275373E-02   4.643374E-03 
  8.075129E-03  -6.275373E-02  -4.643374E-03 
 -8.165371E-03  -6.408249E-02   4.631124E-03 
  8.165371E-03  -6.408249E-02  -4.631124E-03 
 -8.255749E-03  -6.541124E-02   4.617965E-03 
  8.255749E-03  -6.541124E-02  -4.617965E-03 
 -8.346256E-03  -6.673999E-02   4.603898E-03 
  8.346256E-03  -6.673999E-02  -4.603898E-03 
 -8.436883E-03  -6.806874E-02   4.588919E-03 
  8.436883E-03  -6.806874E-02  -4.588919E-03 
 -8.487233E-03  -6.939750E-02   4.557389E-03 
  8.487233E-03  -6.939750E-02  -4.557389E-03 
 -8.537486E-03  -7.072625E-02   4.525451E-03 
  8.537486E-03  -7.072625E-02  -4.525451E-03 
 -8.587641E-03  -7.205500E-02   4.493103E-03 
  8.587641E-03  -7.205500E-02  -4.493103E-03 
 -8.637693E-03  -7.338376E-02   4.460348E-03 
  8.637693E-03  -7.338376E-02  -4.460348E-03 
 -8.652973E-03  -7.471251E-02   4.414944E-03 
  8.652973E-03  -7.471251E-02  -4.414944E-03 
 -8.668017E-03  -7.604126E-02   4.369498E-03 
  8.668017E-03  -7.604126E-02  -4.369498E-03 
 -8.682822E-03  -7.737001E-02   4.324010E-03 
  8.682822E-03  -7.737001E-02  -4.324010E-03 
 -8.697391E-03  -7.869877E-02   4.278482E-03 
  8.697391E-03  -7.869877E-02  -4.278482E-03 
 -8.686204E-03  -8.002752E-02   4.225291E-03 
  8.686204E-03  -8.002752E-02  -4.225291E-03 
 -8.674717E-03  -8.135627E-02   4.172282E-03 
  8.674717E-03  -8.135627E-02  -4.172282E-03 
 -8.662932E-03  -8.268503E-02   4.119459E-03 
  8.662932E-03  -8.268503E-02  -4.119459E-03 
 -8.650850E-03  -8.401378E-02   4.066823E-03 
  8.650850E-03  -8.401378E-02  -4.066823E-03 
 -8.619272E-03  -8.534253E-02   4.009555E-03 
  8.619272E-03  -8.534253E-02  -4.009555E-03 
 -8.587373E-03  -8.667128E-02   3.952610E-03 
  8.587373E-03  -8.667128E-02  -3.952610E-03 
 -8.555156E-03  -8.800004E-02   3.895987E-03 
  8.555156E-03  -8.800004E-02  -3.895987E-03 
 -8.522622E-03  -8.932879E-02   3.839690E-03 
  8.522622E-03  -8.932879E-02  -3.839690E-03 
 -8.470009E-03  -9.065754E-02   3.778345E-03 
  8.470009E-03  -9.065754E-02  -3.778345E-03 
 -8.417059E-03  -9.198630E-02   3.717442E-03 
  8.417059E-03  -9.198630E-02  -3.717442E-03 
 -8.363776E-03  -9.331505E-02   3.656983E-03 
  8.363776E-03  -9.331505E-02  -3.656983E-03 
 -8.310162E-03  -9.464380E-02   3.596970E-03 
  8.310162E-03  -9.464380E-02  -3.596970E-03 
 -8.238204E-03  -9.597255E-02   3.532466E-03 
  8.238204E-03  -9.597255E-02  -3.532466E-03 
 -8.165904E-03  -9.730131E-02   3.468495E-03 
  8.165904E-03  -9.730131E-02  -3.468495E-03 
 -8.093263E-03  -9.863006E-02   3.405060E-03 
  8.093263E-03  -9.863006E-02  -3.405060E-03 
 -8.020286E-03  -9.995881E-02   3.342162E-03 
  8.020286E-03  -9.995881E-02  -3.342162E-03 
 -7.923310E-03  -1.012876E-01   3.272185E-03 
  7.923310E-03  -1.012876E-01  -3.272185E-03 
 -7.825971E-03  -1.026163E-01   3.202861E-03 
  7.825971E-03  -1.026163E-01  -3.202861E-03 
 -7.728272E-03  -1.039451E-01   3.134190E-03 
  7.728272E-03  -1.039451E-01  -3.134190E-03 
 -7.630216E-03  -1.052738E-01   3.066174E-03 
  7.630216E-03  -1.052738E-01  -3.066174E-03 
 -7.507551E-03  -1.066026E-01   2.990711E-03 
  7.507551E-03  -1.066026E-01  -2.990711E-03 
 -7.384503E-03  -1.079313E-01   2.916014E-03 
  7.384503E-03  -1.079313E-01  -2.916014E-03 
 -7.261074E-03  -1.092601E-01   2.842083E-03 
  7.261074E-03  -1.092601E-01  -2.842083E-03 
 -7.137269E-03  -1.105888E-01   2.768921E-03 
  7.137269E-03  -1.105888E-01  -2.768921E-03 
 -6.958255E-03  -1.119176E-01   2.676447E-03 
  6.958255E-03  -1.119176E-01  -2.676447E-03 
 -6.778769E-03  -1.132463E-01   2.585027E-03 
  6.778769E-03  -1.132463E-01  -2.585027E-03 
 -6.598816E-03  -1.145751E-01   2.494663E-03 
  6.598816E-03  -1.145751E-01  -2.494663E-03 
 -6.418400E-03  -1.159038E-01   2.405358E-03 
  6.418400E-03  -1.159038E-01  -2.405358E-03 
 -5.100906E-03  -1.172326E-01   1.895301E-03 
  5.100906E-03  -1.172326E-01  -1.895301E-03 
 -3.780609E-03  -1.185614E-01   1.392664E-03 
  3.780609E-03  -1.185614E-01  -1.392664E-03 
 -2.457540E-03  -1.198901E-01   8.974584E-04 
  2.457540E-03  -1.198901E-01  -8.974584E-04 
 -1.131732E-03  -1.212189E-01   4.096953E-04 
  1.131732E-03  -1.212189E-01  -4.096953E-04 
</DataArray>
</Points>
<Cells>
<DataArray type="Int32" Name="connectivity">
0 1 3 2 2 3 5 4 4 5 7 6 6 7 9 8 8 9 11 10 10 11 13 12 12 13 15 14 14 15 17 16 16 17 19 18 18 19 21 20 20 21 23 22 22 23 25 24 24 25 27 26 26 27 29 28 28 29 31 30 30 31 33 32 32 33 35 34 34 35 37 36 36 37 39 38 38 39 41 40 40 41 43 42 42 43 45 44 44 45 47 46 46 47 49 48 48 49 51 50 50 51 53 52 52 53 55 54 54 55 57 56 56 57 59 58 58 59 61 60 60 61 63 62 62 63 65 64 64 65 67 66 66 67 69 68 68 69 71 70 70 71 73 72 72 73 75 74 74 75 77 76 76 77 79 78 78 79 81 80 80 81 83 82 82 83 85 84 84 85 87 86 86 87 89 88 88 89 91 90 90 91 93 92 92 93 95 94 94 95 97 96 96 97 99 98 98 99 101 100 100 101 103 102 102 103 105 104 104 105 107 106 106 107 109 108 108 109 111 110 110 111 113 112 112 113 115 114 114 115 117 116 116 117 119 118 118 119 121 120 120 121 123 122 122 123 125 124 124 125 127 126 126 127 129 128 128 129 131 130 130 131 133 132 132 133 135 134 134 135 137 136 136 137 139 138 138 139 141 140 140 141 143 142 142 143 145 144 144 145 147 146 146 147 149 148 148 149 151 150 150 151 153 152 
</DataArray>
<DataArray type="Int32" Name="offsets">
4 8 12 16 20 24 28 32 36 40 44 48 52 56 60 64 68 72 76 80 84 88 92 96 100 104 108 112 116 120 124 128 132 136 140 144 148 152 156 160 164 168 172 176 180 184 188 192 196 200 204 208 212 216 220 224 228 232 236 240 244 248 252 256 260 264 268 272 276 280 284 288 292 296 300 304 
</DataArray>
<DataArray type="UInt8" Name="types">
9 9 9 9 9 9 9 9 9 9 9 9 9 9 9 9 9 9 9 9 9 9 9 9 9 9 9 9 9 9 9 9 9 9 9 9 9 9 9 9 9 9 9 9 9 9 9 9 9 9 9 9 9 9 9 9 9 9 9 9 9 9 9 9 9 9 9 9 9 9 9 9 9 9 9 9 
</DataArray>
</Cells>
</Piece>
<Piece NumberOfPoints="154" NumberOfCells="76">
<PointData>
</PointData>
<CellData>
<DataArray type="Float32" NumberOfComponents="3" Name="Velocity">
 -3.392481E-15  -2.770171E+01   0.000000E+00 
 -3.608184E-15  -2.946306E+01   0.000000E+00 
 -3.823888E-15  -3.122441E+01   0.000000E+00 
 -4.039591E-15  -3.298576E+01   0.000000E+00 
 -4.255294E-15  -3.474711E+01   0.000000E+00 
 -4.470997E-15  -3.650846E+01   0.000000E+00 
 -4.686700E-15  -3.826981E+01   0.000000E+00 
 -4.902404E-15  -4.003116E+01   0.000000E+00 
 -5.118107E-15  -4.179251E+01   0.000000E+00 
 -5.333810E-15  -4.355386E+01   0.000000E+00 
 -5.549513E-15  -4.531521E+01   0.000000E+00 
 -5.765216E-15  -4.707656E+01   0.000000E+00 
 -5.980920E-15  -4.883792E+01   0.000000E+00 
 -6.196623E-15  -5.059927E+01   0.000000E+00 
 -6.412326E-15  -5.236062E+01   0.000000E+00 
 -6.628029E-15  -5.412197E+01   0.000000E+00 
 -6.843732E-15  -5.588332E+01   0.000000E+00 
 -7.059436E-15  -5.764467E+01   0.000000E+00 
 -7.275139E-15  -5.940602E+01   0.000000E+00 
 -7.490842E-15  -6.116737E+01   0.000000E+00 
 -7.706545E-15  -6.292872E+01   0.000000E+00 
 -7.922248E-15  -6.469007E+01   0.000000E+00 
 -8.137952E-15  -6.645142E+01   0.000000E+00 
 -8.353655E-15  -6.821277E+01   0.000000E+00 
 -8.569358E-15  -6.997412E+01   0.000000E+00 
 -8.785061E-15  -7.173547E+01   0.000000E+00 
 -9.000765E-15  -7.349682E+01   0.000000E+00 
 -9.216468E-15  -7.525817E+01   0.000000E+00 
 -9.432171E-15  -7.701952E+01   0.000000E+00 
 -9.647874E-15  -7.878087E+01   0.000000E+00 
 -9.863577E-15  -8.054222E+01   0.000000E+00 
 -1.007928E-14  -8.230357E+01   0.000000E+00 
 -1.029498E-14  -8.406492E+01   0.000000E+00 
 -1.051069E-14  -8.582627E+01   0.000000E+00 
 -1.072639E-14  -8.758762E+01   0.000000E+00 
 -1.094209E-14  -8.934897E+01   0.000000E+00 
 -1.115780E-14  -9.111032E+01   0.000000E+00 
 -1.137350E-14  -9.287167E+01   0.000000E+00 
 -1.158920E-14  -9.463302E+01   0.000000E+00 
 -1.180491E-14  -9.639437E+01   0.000000E+00 
 -1.202061E-14  -9.815572E+01   0.000000E+00 
 -1.223631E-14  -9.991708E+01   0.000000E+00 
 -1.245202E-14  -1.016784E+02   0.000000E+00 
 -1.266772E-14  -1.034398E+02   0.000000E+00 
 -1.288342E-14  -1.052011E+02   0.000000E+00 
 -1.309913E-14  -1.069625E+02   0.000000E+00 
 -1.331483E-14  -1.087238E+02   0.000000E+00 
 -1.353053E-14  -1.104852E+02   0.000000E+00 
 -1.374624E-14  -1.122465E+02   0.000000E+00 
 -1.396194E-14  -1.140079E+02   0.000000E+00 
 -1.417764E-14  -1.157692E+02   0.000000E+00 
 -1.439334E-14  -1.175306E+02   0.000000E+00 
 -1.460905E-14  -1.192919E+02   0.000000E+00 
 -1.482475E-14  -1.210533E+02   0.000000E+00 
 -1.504045E-14  -1.228146E+02   0.000000E+00 
 -1.525616E-14  -1.245760E+02   0.000000E+00 
 -1.547186E-14  -1.263373E+02   0.000000E+00 
 -1.568756E-14  -1.280987E+02   0.000000E+00 
 -1.590327E-14  -1.298600E+02   0.000000E+00 
 -1.611897E-14  -1.316214E+02   0.000000E+00 
 -1.633467E-14  -1.333827E+02   0.000000E+00 
 -1.655038E-14  -1.351441E+02   0.000000E+00 
 -1.676608E-14  -1.369054E+02   0.000000E+00 
 -1.698178E-14  -1.386668E+02   0.000000E+00 
 -1.719749E-14  -1.404281E+02   0.000000E+00 
 -1.741319E-14  -1.421895E+02   0.000000E+00 
 -1.762889E-14  -1.439508E+02   0.000000E+00 
 -1.784460E-14  -1.457122E+02   0.000000E+00 
 -1.806030E-14  -1.474735E+02   0.000000E+00 
 -1.827600E-14  -1.492349E+02   0.000000E+00 
 -1.849171E-14  -1.509962E+02   0.000000E+00 
 -1.870741E-14  -1.527576E+02   0.000000E+00 
 -1.892311E-14  -1.545189E+02   0.000000E+00 
 -1.913882E-14  -1.562803E+02   0.000000E+00 
 -1.935452E-14  -1.580416E+02   0.000000E+00 
 -1.957022E-14  -1.598030E+02   0.000000E+00 
</DataArray>
</CellData>
<Points>
<DataArray type="Float32" NumberOfComponents="3" Name="Coordinates">
  2.023364E-02  -3.427506E-03   3.646003E-03 
  2.023364E-02   3.427506E-03  -3.646003E-03 
  2.156239E-02  -3.500557E-03   3.633504E-03 
  2.156239E-02   3.500557E-03  -3.633504E-03 
  2.289115E-02  -3.573813E-03   3.619758E-03 
  2.289115E-02   3.573813E-03  -3.619758E-03 
  2.421990E-02  -3.647252E-03   3.604758E-03 
  2.421990E-02   3.647252E-03  -3.604758E-03 
  2.554865E-02  -3.720856E-03   3.588499E-03 
  2.554865E-02   3.720856E-03  -3.588499E-03 
  2.687740E-02  -3.850949E-03   3.631094E-03 
  2.687740E-02   3.850949E-03  -3.631094E-03 
  2.820616E-02  -3.982463E-03   3.671203E-03 
  2.820616E-02   3.982463E-03  -3.671203E-03 
  2.953491E-02  -4.115358E-03   3.708798E-03 
  2.953491E-02   4.115358E-03  -3.708798E-03 
  3.086366E-02  -4.249596E-03   3.743853E-03 
  3.086366E-02   4.249596E-03  -3.743853E-03 
  3.219242E-02  -4.406788E-03   3.802084E-03 
  3.219242E-02   4.406788E-03  -3.802084E-03 
  3.352117E-02  -4.565628E-03   3.857451E-03 
  3.352117E-02   4.565628E-03  -3.857451E-03 
  3.484992E-02  -4.726072E-03   3.909928E-03 
  3.484992E-02   4.726072E-03  -3.909928E-03 
  3.617867E-02  -4.888078E-03   3.959488E-03 